# Probe 0 (0 0 0)
#             Probe                   0
#              Time
                  1       226269.278753
