# Probe 0 (0 0 0)
#             Probe                   0
#              Time
                  1       17881.7208482
