# Probe 0 (0 0 0)
#             Probe                   0
#              Time
                  1       17921.9729003
