# Probe 0 (0 0 0)
#             Probe                   0
#              Time
                  1       34721.3855611
