# Probe 0 (0 0 0)
#             Probe                   0
#              Time
                  1       3997.11469117
