# Probe 0 (0 0 0)
#             Probe                   0
#              Time
                  1       4073.57492742
