# Probe 0 (0 0 0)
#             Probe                   0
#              Time
                  1       18048.7459458
