# Probe 0 (0 0 0)
#             Probe                   0
#              Time
                  1       11908.9900055
