# Probe 0 (0 0 0)
#             Probe                   0
#              Time
                  1       937.250257469
