# Probe 0 (0 0 0)
#             Probe                   0
#              Time
                  1       1186.73724251
