# Probe 0 (0 0 0)
#             Probe                   0
#              Time
                  1       18038.2552646
