# Probe 0 (0 0 0)
#             Probe                   0
#              Time
                  1       10364.6038254
