# Probe 0 (0 0 0)
#             Probe                   0
#              Time
                  1       15986.9081387
