# Probe 0 (0 0 0)
#             Probe                   0
#              Time
                  1       15210.8788403
