# Probe 0 (0 0 0)
#             Probe                   0
#              Time
                  1       16635.6367247
