# Probe 0 (0 0 0)
#             Probe                   0
#              Time
                  1       1372.11632281
