# Probe 0 (0 0 0)
#             Probe                   0
#              Time
                  1       27.6783876402
