# Probe 0 (0 0 0)
#             Probe                   0
#              Time
                  1       2.76506761624
