Ensight Geometry File
Written by OpenFOAM 2306
node id assign
element id assign
part
         1
geometry
coordinates
       377
-4.80000e+00
-4.80000e+00
-4.60000e+00
-4.60000e+00
-4.40000e+00
-4.40000e+00
-4.20000e+00
-4.20000e+00
-4.00000e+00
-4.00000e+00
-3.80000e+00
-3.80000e+00
-3.60000e+00
-3.60000e+00
-3.40000e+00
-3.40000e+00
-3.20000e+00
-3.00000e+00
-3.00000e+00
-2.80000e+00
-2.80000e+00
-2.60000e+00
-2.60000e+00
-2.40000e+00
-2.40000e+00
-2.10000e+00
-2.00000e+00
-2.00000e+00
-1.90000e+00
-1.80000e+00
-1.60000e+00
-1.60000e+00
-1.40000e+00
-1.40000e+00
-1.20000e+00
-1.20000e+00
-9.00000e-01
-8.00000e-01
-8.00000e-01
-6.00000e-01
-6.00000e-01
-4.00000e-01
-4.00000e-01
-2.00000e-01
-2.00000e-01
 0.00000e+00
 0.00000e+00
 2.00000e-01
 2.00000e-01
 4.00000e-01
 4.00000e-01
 6.00000e-01
 6.00000e-01
 8.00000e-01
 8.00000e-01
 1.00000e+00
 1.00000e+00
 1.20000e+00
 1.20000e+00
 1.40000e+00
 1.40000e+00
 1.60000e+00
 1.60000e+00
 2.50000e+00
 2.60000e+00
 2.60000e+00
 2.50000e+00
 2.80000e+00
 2.80000e+00
 3.00000e+00
 3.00000e+00
 3.20000e+00
 3.20000e+00
 3.40000e+00
 3.40000e+00
 3.60000e+00
 3.60000e+00
 3.72000e+00
 3.72000e+00
 4.10000e+00
 4.20000e+00
 4.20000e+00
 4.10000e+00
 4.26667e+00
 4.26316e+00
-3.20000e+00
-2.20000e+00
-2.20000e+00
-1.80000e+00
-1.00000e+00
-1.00000e+00
 1.80000e+00
 1.80000e+00
 2.00000e+00
 2.00000e+00
 2.20000e+00
 2.20000e+00
 2.40000e+00
 2.40000e+00
 3.80000e+00
 3.80000e+00
 4.00000e+00
 4.00000e+00
 4.40000e+00
 4.40000e+00
 4.60000e+00
 4.60000e+00
 4.80000e+00
 4.80000e+00
-4.80000e+00
-4.60000e+00
-4.40000e+00
-4.20000e+00
-4.00000e+00
-3.80000e+00
-3.60000e+00
-3.40000e+00
-3.00000e+00
-2.80000e+00
-2.40000e+00
-2.00000e+00
-1.80000e+00
-1.40000e+00
-1.20000e+00
-8.00000e-01
-6.00000e-01
-3.00000e-01
-2.00000e-01
 0.00000e+00
 2.00000e-01
 4.00000e-01
 6.00000e-01
 8.00000e-01
 1.00000e+00
 1.20000e+00
 2.50000e+00
 2.60000e+00
 2.80000e+00
 3.00000e+00
 3.20000e+00
 3.40000e+00
 3.60000e+00
 3.70909e+00
 4.10000e+00
 4.20000e+00
 4.26316e+00
-3.20000e+00
-2.60000e+00
-2.20000e+00
-1.60000e+00
-1.00000e+00
-4.00000e-01
 1.40000e+00
 1.60000e+00
 1.80000e+00
 2.00000e+00
 2.20000e+00
 2.40000e+00
 3.80000e+00
 4.00000e+00
 4.40000e+00
 4.60000e+00
 4.80000e+00
-4.80000e+00
-4.60000e+00
-4.40000e+00
-4.20000e+00
-4.00000e+00
-3.80000e+00
-3.60000e+00
-3.40000e+00
-3.20000e+00
-3.00000e+00
-2.80000e+00
-2.60000e+00
-2.00000e+00
-1.80000e+00
-1.60000e+00
-1.40000e+00
-1.20000e+00
-9.00000e-01
-8.00000e-01
-6.00000e-01
-4.00000e-01
-2.00000e-01
 0.00000e+00
 2.00000e-01
 4.00000e-01
 6.00000e-01
 8.00000e-01
 1.00000e+00
 1.20000e+00
 1.40000e+00
 2.50000e+00
 2.60000e+00
 2.80000e+00
 3.00000e+00
 3.20000e+00
 3.40000e+00
 3.60000e+00
 3.72000e+00
 4.10000e+00
 4.20000e+00
 4.26316e+00
-2.40000e+00
-2.20000e+00
-1.00000e+00
 1.60000e+00
 1.80000e+00
 2.00000e+00
 2.20000e+00
 2.40000e+00
 3.80000e+00
 4.00000e+00
 4.40000e+00
 4.60000e+00
 4.80000e+00
-4.80000e+00
-4.60000e+00
-4.40000e+00
-4.20000e+00
-4.00000e+00
-3.80000e+00
-3.60000e+00
-3.40000e+00
-3.20000e+00
-3.00000e+00
-2.80000e+00
-2.40000e+00
-2.00000e+00
-1.80000e+00
-1.60000e+00
-1.40000e+00
-1.20000e+00
-1.00000e+00
-8.00000e-01
-6.00000e-01
-4.00000e-01
-2.00000e-01
 0.00000e+00
 2.00000e-01
 4.00000e-01
 6.00000e-01
 8.00000e-01
 1.00000e+00
 1.20000e+00
 1.40000e+00
 1.60000e+00
 1.80000e+00
 2.60000e+00
 2.80000e+00
 3.00000e+00
 3.20000e+00
 3.40000e+00
 3.60000e+00
 3.72000e+00
 4.10000e+00
 4.20000e+00
 4.26667e+00
-2.60000e+00
-2.20000e+00
 2.00000e+00
 2.20000e+00
 2.40000e+00
 3.80000e+00
 4.00000e+00
 4.40000e+00
 4.60000e+00
 4.80000e+00
-4.80000e+00
-4.60000e+00
-4.40000e+00
-4.20000e+00
-4.00000e+00
-3.80000e+00
-3.60000e+00
-3.40000e+00
-3.20000e+00
-3.00000e+00
-2.80000e+00
-2.60000e+00
-2.00000e+00
-1.80000e+00
-1.60000e+00
-1.40000e+00
-1.20000e+00
-9.00000e-01
-8.00000e-01
-6.00000e-01
-4.00000e-01
-2.00000e-01
 0.00000e+00
 2.00000e-01
 4.00000e-01
 6.00000e-01
 8.00000e-01
 1.00000e+00
 1.20000e+00
 1.40000e+00
 1.60000e+00
 1.80000e+00
 2.50000e+00
 2.60000e+00
 2.80000e+00
 3.00000e+00
 3.20000e+00
 3.40000e+00
 3.60000e+00
 3.77143e+00
 4.10000e+00
 4.20000e+00
 4.26316e+00
-2.40000e+00
-2.20000e+00
-1.00000e+00
 2.00000e+00
 2.20000e+00
 2.40000e+00
 3.80000e+00
 4.00000e+00
 4.40000e+00
 4.60000e+00
 4.80000e+00
-4.80000e+00
-4.60000e+00
-4.40000e+00
-4.20000e+00
-4.00000e+00
-3.80000e+00
-3.60000e+00
-3.40000e+00
-3.20000e+00
-3.00000e+00
-2.80000e+00
-2.60000e+00
-2.40000e+00
-2.00000e+00
-1.80000e+00
-1.60000e+00
-1.40000e+00
-1.20000e+00
-9.00000e-01
-8.00000e-01
-6.00000e-01
-4.00000e-01
-2.00000e-01
 0.00000e+00
 2.00000e-01
 4.00000e-01
 6.00000e-01
 8.00000e-01
 1.00000e+00
 1.20000e+00
 1.40000e+00
 1.60000e+00
 1.80000e+00
 2.50000e+00
 2.60000e+00
 2.80000e+00
 3.00000e+00
 3.20000e+00
 3.40000e+00
 3.60000e+00
 3.72000e+00
 4.10000e+00
 4.20000e+00
 4.26316e+00
-2.20000e+00
-1.00000e+00
 2.00000e+00
 2.20000e+00
 2.40000e+00
 3.80000e+00
 4.00000e+00
 4.40000e+00
 4.60000e+00
 4.80000e+00
 0.00000e+00
 0.00000e+00
 0.00000e+00
 0.00000e+00
 0.00000e+00
 0.00000e+00
 0.00000e+00
 0.00000e+00
 0.00000e+00
 0.00000e+00
 0.00000e+00
 0.00000e+00
 0.00000e+00
 0.00000e+00
 0.00000e+00
 0.00000e+00
 0.00000e+00
 0.00000e+00
 0.00000e+00
 0.00000e+00
 0.00000e+00
 0.00000e+00
 0.00000e+00
 0.00000e+00
 0.00000e+00
 0.00000e+00
 7.40149e-17
 0.00000e+00
 0.00000e+00
 0.00000e+00
 0.00000e+00
 0.00000e+00
 0.00000e+00
 0.00000e+00
 0.00000e+00
 0.00000e+00
 0.00000e+00
 0.00000e+00
 7.40149e-17
 0.00000e+00
 0.00000e+00
 0.00000e+00
 0.00000e+00
 7.40149e-17
 7.40149e-17
 0.00000e+00
 0.00000e+00
 0.00000e+00
 0.00000e+00
 0.00000e+00
 0.00000e+00
 0.00000e+00
 0.00000e+00
 3.70074e-17
 3.70074e-17
 3.70074e-17
 3.70074e-17
 0.00000e+00
 0.00000e+00
 0.00000e+00
 0.00000e+00
 0.00000e+00
 0.00000e+00
 0.00000e+00
 3.70074e-17
 3.70074e-17
 0.00000e+00
 3.70074e-17
 3.70074e-17
 0.00000e+00
 0.00000e+00
 0.00000e+00
 0.00000e+00
 0.00000e+00
 0.00000e+00
 5.55112e-17
 5.55112e-17
 3.08149e-33
 3.08149e-33
 0.00000e+00
 2.77556e-17
 2.77556e-17
 0.00000e+00
 3.08149e-33
 0.00000e+00
-7.40149e-17
-7.40149e-17
-7.40149e-17
-7.40149e-17
-7.40149e-17
-7.40149e-17
-7.40149e-17
 0.00000e+00
-3.70074e-17
-3.70074e-17
-3.70074e-17
-3.70074e-17
-3.70074e-17
-3.70074e-17
-3.70074e-17
-3.70074e-17
-2.77556e-17
-2.77556e-17
-5.55112e-17
-6.01371e-17
-6.01371e-17
-6.01371e-17
 0.00000e+00
 0.00000e+00
 0.00000e+00
 0.00000e+00
 0.00000e+00
 0.00000e+00
 0.00000e+00
 0.00000e+00
 0.00000e+00
 0.00000e+00
 0.00000e+00
 0.00000e+00
 0.00000e+00
 0.00000e+00
 0.00000e+00
 0.00000e+00
 0.00000e+00
 0.00000e+00
 0.00000e+00
 0.00000e+00
 7.40149e-17
 0.00000e+00
 0.00000e+00
 0.00000e+00
 0.00000e+00
 3.70074e-17
 3.70074e-17
 0.00000e+00
 0.00000e+00
 3.70074e-17
 3.70074e-17
 0.00000e+00
 0.00000e+00
 0.00000e+00
 5.55112e-17
 0.00000e+00
 0.00000e+00
 2.77556e-17
 6.16298e-33
-7.40149e-17
-7.40149e-17
-7.40149e-17
-7.40149e-17
-7.40149e-17
-7.40149e-17
-7.40149e-17
-7.40149e-17
 0.00000e+00
-3.70074e-17
-3.70074e-17
-3.70074e-17
-4.62593e-17
-2.77556e-17
-6.01371e-17
-6.01371e-17
 0.00000e+00
 0.00000e+00
 0.00000e+00
 0.00000e+00
 0.00000e+00
 0.00000e+00
 0.00000e+00
 0.00000e+00
 0.00000e+00
 0.00000e+00
 0.00000e+00
 0.00000e+00
 0.00000e+00
 0.00000e+00
 0.00000e+00
 0.00000e+00
 0.00000e+00
 0.00000e+00
 0.00000e+00
 7.40149e-17
 0.00000e+00
 0.00000e+00
 7.40149e-17
 0.00000e+00
 0.00000e+00
 0.00000e+00
 0.00000e+00
 3.70074e-17
 3.70074e-17
 0.00000e+00
 0.00000e+00
 0.00000e+00
 3.70074e-17
 3.70074e-17
 0.00000e+00
 0.00000e+00
 0.00000e+00
 5.55112e-17
 3.08149e-33
 0.00000e+00
 2.77556e-17
 6.16298e-33
 0.00000e+00
-7.40149e-17
-7.40149e-17
 0.00000e+00
 0.00000e+00
-3.70074e-17
-3.70074e-17
-3.70074e-17
-3.70074e-17
-2.77556e-17
-6.01371e-17
-6.01371e-17
 0.00000e+00
 0.00000e+00
 0.00000e+00
 0.00000e+00
 0.00000e+00
 0.00000e+00
 0.00000e+00
 0.00000e+00
 0.00000e+00
 7.40149e-17
 0.00000e+00
 0.00000e+00
 0.00000e+00
 0.00000e+00
 0.00000e+00
 0.00000e+00
 0.00000e+00
 0.00000e+00
 0.00000e+00
 0.00000e+00
 0.00000e+00
 0.00000e+00
 0.00000e+00
 0.00000e+00
 0.00000e+00
 0.00000e+00
 0.00000e+00
 3.70074e-17
 3.70074e-17
 0.00000e+00
 0.00000e+00
 0.00000e+00
 0.00000e+00
 0.00000e+00
 3.70074e-17
 0.00000e+00
 0.00000e+00
 0.00000e+00
 5.55112e-17
 3.08149e-33
 0.00000e+00
 2.77556e-17
 3.08149e-33
-7.40149e-17
-7.40149e-17
-3.70074e-17
-3.70074e-17
-3.70074e-17
-3.70074e-17
-2.77556e-17
-5.55112e-17
-6.01371e-17
 0.00000e+00
 0.00000e+00
 0.00000e+00
 0.00000e+00
 0.00000e+00
 0.00000e+00
 0.00000e+00
 0.00000e+00
 0.00000e+00
 0.00000e+00
 0.00000e+00
 0.00000e+00
 0.00000e+00
 0.00000e+00
 0.00000e+00
 0.00000e+00
 0.00000e+00
 0.00000e+00
 0.00000e+00
 7.40149e-17
 0.00000e+00
 0.00000e+00
 7.40149e-17
 0.00000e+00
 0.00000e+00
 0.00000e+00
 0.00000e+00
 3.70074e-17
 3.70074e-17
 0.00000e+00
 0.00000e+00
 0.00000e+00
 0.00000e+00
 0.00000e+00
 3.70074e-17
 3.70074e-17
 0.00000e+00
 0.00000e+00
 0.00000e+00
 5.55112e-17
 0.00000e+00
 0.00000e+00
 2.77556e-17
 6.16298e-33
 0.00000e+00
-7.40149e-17
-7.40149e-17
-3.70074e-17
-3.70074e-17
-3.70074e-17
-9.25186e-18
-2.77556e-17
-6.01371e-17
-6.01371e-17
 0.00000e+00
 0.00000e+00
 0.00000e+00
 0.00000e+00
 0.00000e+00
 0.00000e+00
 0.00000e+00
 0.00000e+00
 0.00000e+00
 0.00000e+00
 0.00000e+00
 0.00000e+00
 0.00000e+00
 0.00000e+00
 0.00000e+00
 0.00000e+00
 0.00000e+00
 0.00000e+00
 0.00000e+00
 0.00000e+00
 7.40149e-17
 0.00000e+00
 0.00000e+00
 7.40149e-17
 0.00000e+00
 0.00000e+00
 0.00000e+00
 0.00000e+00
 3.70074e-17
 3.70074e-17
 0.00000e+00
 0.00000e+00
 0.00000e+00
 0.00000e+00
 0.00000e+00
 3.70074e-17
 3.70074e-17
 0.00000e+00
 0.00000e+00
 0.00000e+00
 5.55112e-17
 3.08149e-33
 0.00000e+00
 2.77556e-17
 6.16298e-33
-7.40149e-17
-7.40149e-17
-3.70074e-17
-3.70074e-17
-3.70074e-17
-3.70074e-17
-2.77556e-17
-6.01371e-17
-6.01371e-17
 0.00000e+00
-6.00000e-01
-4.00000e-01
-4.00000e-01
-6.00000e-01
-4.00000e-01
-6.00000e-01
-4.00000e-01
-6.00000e-01
-4.00000e-01
-6.00000e-01
-4.00000e-01
-6.00000e-01
-4.00000e-01
-6.00000e-01
-4.00000e-01
-6.00000e-01
-6.00000e-01
-4.00000e-01
-6.00000e-01
-4.00000e-01
-6.00000e-01
-4.00000e-01
-6.00000e-01
-4.00000e-01
-6.00000e-01
-4.00000e-01
-4.00000e-01
-6.00000e-01
-4.00000e-01
-6.00000e-01
-4.00000e-01
-6.00000e-01
-4.00000e-01
-6.00000e-01
-4.00000e-01
-6.00000e-01
-6.00000e-01
-4.00000e-01
-6.00000e-01
-4.00000e-01
-6.00000e-01
-4.00000e-01
-6.00000e-01
-4.00000e-01
-6.00000e-01
-4.00000e-01
-6.00000e-01
-4.00000e-01
-6.00000e-01
-4.00000e-01
-6.00000e-01
-4.00000e-01
-6.00000e-01
-4.00000e-01
-6.00000e-01
-4.00000e-01
-6.00000e-01
-4.00000e-01
-6.00000e-01
-4.00000e-01
-6.00000e-01
-4.00000e-01
-6.00000e-01
-4.00000e-01
-4.00000e-01
-6.00000e-01
-6.00000e-01
-4.00000e-01
-6.00000e-01
-4.00000e-01
-6.00000e-01
-4.00000e-01
-6.00000e-01
-4.00000e-01
-6.00000e-01
-4.00000e-01
-6.00000e-01
-4.00000e-01
-6.00000e-01
-4.00000e-01
-4.00000e-01
-6.00000e-01
-6.00000e-01
-4.00000e-01
-6.00000e-01
-4.00000e-01
-4.00000e-01
-6.00000e-01
-4.00000e-01
-4.00000e-01
-6.00000e-01
-4.00000e-01
-6.00000e-01
-4.00000e-01
-6.00000e-01
-4.00000e-01
-6.00000e-01
-4.00000e-01
-6.00000e-01
-4.00000e-01
-6.00000e-01
-4.00000e-01
-6.00000e-01
-4.00000e-01
-6.00000e-01
-4.00000e-01
-6.00000e-01
-4.00000e-01
-6.00000e-01
-2.00000e-01
-2.00000e-01
-2.00000e-01
-2.00000e-01
-2.00000e-01
-2.00000e-01
-2.00000e-01
-2.00000e-01
-2.00000e-01
-2.00000e-01
-2.00000e-01
-2.00000e-01
-2.00000e-01
-2.00000e-01
-2.00000e-01
-2.00000e-01
-2.00000e-01
-2.00000e-01
-2.00000e-01
-2.00000e-01
-2.00000e-01
-2.00000e-01
-2.00000e-01
-2.00000e-01
-2.00000e-01
-2.00000e-01
-2.00000e-01
-2.00000e-01
-2.00000e-01
-2.00000e-01
-2.00000e-01
-2.00000e-01
-2.00000e-01
-2.00000e-01
-2.00000e-01
-2.00000e-01
-2.00000e-01
-2.00000e-01
-2.00000e-01
-2.00000e-01
-2.00000e-01
-2.00000e-01
-2.00000e-01
-2.00000e-01
-2.00000e-01
-2.00000e-01
-2.00000e-01
-2.00000e-01
-2.00000e-01
-2.00000e-01
-2.00000e-01
-2.00000e-01
-2.00000e-01
-2.00000e-01
 0.00000e+00
 0.00000e+00
 0.00000e+00
 0.00000e+00
 0.00000e+00
 0.00000e+00
 0.00000e+00
 0.00000e+00
 0.00000e+00
 0.00000e+00
 0.00000e+00
 0.00000e+00
 0.00000e+00
 0.00000e+00
 0.00000e+00
 0.00000e+00
 0.00000e+00
 0.00000e+00
 9.25186e-18
 0.00000e+00
 0.00000e+00
 9.25186e-18
 0.00000e+00
 0.00000e+00
 0.00000e+00
 0.00000e+00
 4.62593e-18
 4.62593e-18
 0.00000e+00
 0.00000e+00
 0.00000e+00
 4.62593e-18
 4.62593e-18
 0.00000e+00
 0.00000e+00
 0.00000e+00
 6.93889e-18
 2.00027e-30
 0.00000e+00
 3.46945e-18
-2.36812e-30
 0.00000e+00
-9.25186e-18
-9.25186e-18
 0.00000e+00
 0.00000e+00
-4.62593e-18
-4.62593e-18
-4.62593e-18
-4.62593e-18
-3.46945e-18
-7.51714e-18
-7.51714e-18
 0.00000e+00
 2.00000e-01
 2.00000e-01
 2.00000e-01
 2.00000e-01
 2.00000e-01
 2.00000e-01
 2.00000e-01
 2.00000e-01
 2.00000e-01
 2.00000e-01
 2.00000e-01
 2.00000e-01
 2.00000e-01
 2.00000e-01
 2.00000e-01
 2.00000e-01
 2.00000e-01
 2.00000e-01
 2.00000e-01
 2.00000e-01
 2.00000e-01
 2.00000e-01
 2.00000e-01
 2.00000e-01
 2.00000e-01
 2.00000e-01
 2.00000e-01
 2.00000e-01
 2.00000e-01
 2.00000e-01
 2.00000e-01
 2.00000e-01
 2.00000e-01
 2.00000e-01
 2.00000e-01
 2.00000e-01
 2.00000e-01
 2.00000e-01
 2.00000e-01
 2.00000e-01
 2.00000e-01
 2.00000e-01
 2.00000e-01
 2.00000e-01
 2.00000e-01
 2.00000e-01
 2.00000e-01
 2.00000e-01
 2.00000e-01
 2.00000e-01
 2.00000e-01
 2.00000e-01
 4.00000e-01
 4.00000e-01
 4.00000e-01
 4.00000e-01
 4.00000e-01
 4.00000e-01
 4.00000e-01
 4.00000e-01
 4.00000e-01
 4.00000e-01
 4.00000e-01
 4.00000e-01
 4.00000e-01
 4.00000e-01
 4.00000e-01
 4.00000e-01
 4.00000e-01
 4.00000e-01
 4.00000e-01
 4.00000e-01
 4.00000e-01
 4.00000e-01
 4.00000e-01
 4.00000e-01
 4.00000e-01
 4.00000e-01
 4.00000e-01
 4.00000e-01
 4.00000e-01
 4.00000e-01
 4.00000e-01
 4.00000e-01
 4.00000e-01
 4.00000e-01
 4.00000e-01
 4.00000e-01
 4.00000e-01
 4.00000e-01
 4.00000e-01
 4.00000e-01
 4.00000e-01
 4.00000e-01
 4.00000e-01
 4.00000e-01
 4.00000e-01
 4.00000e-01
 4.00000e-01
 4.00000e-01
 4.00000e-01
 4.00000e-01
 4.00000e-01
 4.00000e-01
 4.00000e-01
 4.00000e-01
 6.00000e-01
 6.00000e-01
 6.00000e-01
 6.00000e-01
 6.00000e-01
 6.00000e-01
 6.00000e-01
 6.00000e-01
 6.00000e-01
 6.00000e-01
 6.00000e-01
 6.00000e-01
 6.00000e-01
 6.00000e-01
 6.00000e-01
 6.00000e-01
 6.00000e-01
 6.00000e-01
 6.00000e-01
 6.00000e-01
 6.00000e-01
 6.00000e-01
 6.00000e-01
 6.00000e-01
 6.00000e-01
 6.00000e-01
 6.00000e-01
 6.00000e-01
 6.00000e-01
 6.00000e-01
 6.00000e-01
 6.00000e-01
 6.00000e-01
 6.00000e-01
 6.00000e-01
 6.00000e-01
 6.00000e-01
 6.00000e-01
 6.00000e-01
 6.00000e-01
 6.00000e-01
 6.00000e-01
 6.00000e-01
 6.00000e-01
 6.00000e-01
 6.00000e-01
 6.00000e-01
 6.00000e-01
 6.00000e-01
 6.00000e-01
 6.00000e-01
 6.00000e-01
 6.00000e-01
 6.00000e-01
tria3
        36
        17        18        19
        26        27        28
        28        27        29
        30        31        32
        37        38        39
        17        86        18
        30        89        31
        22       120        24
        26       121        27
        31       123        33
        22       148       120
        29       122        89
        31       150       123
        42       152       127
       117       171       172
       119       174       175
       122       177       178
       181       182       125
       126       183       184
       135       192       193
       117       172       147
       119       175       148
       122       178       150
       126       184       152
       184       127       152
       135       193       153
       175       229       205
       180       234       235
       181       236       182
       194       250       195
       175       260       229
       180       235       207
       228       280       281
       302       303       250
       228       281       260
       235       315       287
quad4
       299
         1         2         3         4
         4         3         5         6
         6         5         7         8
         8         7         9        10
        10         9        11        12
        12        11        13        14
        14        13        15        16
        19        18        20        21
        21        20        22        23
        23        22        24        25
        32        31        33        34
        34        33        35        36
        39        38        40        41
        41        40        42        43
        43        42        44        45
        45        44        46        47
        47        46        48        49
        49        48        50        51
        51        50        52        53
        53        52        54        55
        55        54        56        57
        57        56        58        59
        59        58        60        61
        61        60        62        63
        64        65        66        67
        66        65        68        69
        69        68        70        71
        71        70        72        73
        73        72        74        75
        75        74        76        77
        76        78        79        77
        80        81        82        83
        81        84        85        82
        16        15        86        17
        25        24        87        88
        88        87        26        28
        28        29        89        30
        36        35        90        91
        91        90        38        37
        63        62        92        93
        93        92        94        95
        95        94        96        97
        97        96        98        99
        99        98        64        67
        78       100       101        79
       101       100       102       103
       103       102        80        83
        84       104       105        85
       105       104       106       107
       107       106       108       109
         2       110       111         3
         3       111       112         5
         5       112       113         7
         7       113       114         9
         9       114       115        11
        11       115       116        13
        13       116       117        15
        18       118       119        20
        27       121       122        29
        33       123       124        35
        38       125       126        40
        42       127       128        44
        44       128       129        46
        46       129       130        48
        48       130       131        50
        50       131       132        52
        52       132       133        54
        54       133       134        56
        56       134       135        58
       136       137        65        64
        65       137       138        68
        68       138       139        70
        70       139       140        72
        72       140       141        74
        74       141       142        76
       142       143        78        76
       144       145        81        80
       145       146        84        81
        15       117       147        86
        86       147       118        18
        20       119       148        22
        24       120       149        87
        87       149       121        26
       122       150        31        89
        35       124       151        90
        90       151       125        38
        40       126       152        42
        58       135       153        60
        60       153       154        62
        62       154       155        92
       155       156        94        92
        94       156       157        96
        96       157       158        98
        98       158       136        64
       143       159       100        78
       100       159       160       102
       102       160       144        80
       146       161       104        84
       104       161       162       106
       106       162       163       108
       110       164       165       111
       111       165       166       112
       112       166       167       113
       113       167       168       114
       114       168       169       115
       115       169       170       116
       116       170       171       117
       118       173       174       119
       121       176       177       122
       123       179       180       124
       125       182       183       126
       184       185       128       127
       128       185       186       129
       129       186       187       130
       130       187       188       131
       131       188       189       132
       132       189       190       133
       133       190       191       134
       134       191       192       135
       194       195       137       136
       137       195       196       138
       138       196       197       139
       139       197       198       140
       140       198       199       141
       141       199       200       142
       200       201       143       142
       202       203       145       144
       203       204       146       145
       172       173       118       147
       175       205       120       148
       120       205       206       149
       149       206       176       121
       178       179       123       150
       124       180       207       151
       151       207       181       125
       193       208       154       153
       208       209       155       154
       155       209       210       156
       156       210       211       157
       157       211       212       158
       158       212       194       136
       201       213       159       143
       159       213       214       160
       160       214       202       144
       204       215       161       146
       161       215       216       162
       162       216       217       163
       164       218       219       165
       165       219       220       166
       166       220       221       167
       167       221       222       168
       168       222       223       169
       169       223       224       170
       170       224       225       171
       171       225       226       172
       172       226       227       173
       173       227       228       174
       176       230       231       177
       177       231       232       178
       178       232       233       179
       179       233       234       180
       182       236       237       183
       183       237       238       184
       184       238       239       185
       185       239       240       186
       186       240       241       187
       187       241       242       188
       188       242       243       189
       189       243       244       190
       190       244       245       191
       191       245       246       192
       192       246       247       193
       193       247       248       208
       208       248       249       209
       195       250       251       196
       196       251       252       197
       197       252       253       198
       198       253       254       199
       199       254       255       200
       255       256       201       200
       257       258       203       202
       258       259       204       203
       174       228       260       175
       205       229       261       206
       206       261       230       176
       235       236       181       207
       209       249       262       210
       210       262       263       211
       211       263       264       212
       212       264       250       194
       256       265       213       201
       213       265       266       214
       214       266       257       202
       259       267       215       204
       215       267       268       216
       216       268       269       217
       218       270       271       219
       219       271       272       220
       220       272       273       221
       221       273       274       222
       222       274       275       223
       223       275       276       224
       224       276       277       225
       225       277       278       226
       226       278       279       227
       227       279       280       228
       230       282       283       231
       231       283       284       232
       232       284       285       233
       233       285       286       234
       235       287       288       236
       236       288       289       237
       237       289       290       238
       238       290       291       239
       239       291       292       240
       240       292       293       241
       241       293       294       242
       242       294       295       243
       243       295       296       244
       244       296       297       245
       245       297       298       246
       246       298       299       247
       247       299       300       248
       248       300       301       249
       250       303       304       251
       251       304       305       252
       252       305       306       253
       253       306       307       254
       254       307       308       255
       308       309       256       255
       310       311       258       257
       311       312       259       258
       281       313       229       260
       229       313       314       261
       261       314       282       230
       234       286       315       235
       249       301       316       262
       262       316       317       263
       263       317       318       264
       264       318       302       250
       309       319       265       256
       265       319       320       266
       266       320       310       257
       312       321       267       259
       267       321       322       268
       268       322       323       269
       270       324       325       271
       271       325       326       272
       272       326       327       273
       273       327       328       274
       274       328       329       275
       275       329       330       276
       276       330       331       277
       277       331       332       278
       278       332       333       279
       279       333       334       280
       280       334       335       281
       281       335       336       313
       282       337       338       283
       283       338       339       284
       284       339       340       285
       285       340       341       286
       342       343       288       287
       288       343       344       289
       289       344       345       290
       290       345       346       291
       291       346       347       292
       292       347       348       293
       293       348       349       294
       294       349       350       295
       295       350       351       296
       296       351       352       297
       297       352       353       298
       298       353       354       299
       299       354       355       300
       300       355       356       301
       357       358       303       302
       303       358       359       304
       304       359       360       305
       305       360       361       306
       306       361       362       307
       307       362       363       308
       363       364       309       308
       365       366       311       310
       366       367       312       311
       313       336       368       314
       314       368       337       282
       286       341       369       315
       315       369       342       287
       301       356       370       316
       316       370       371       317
       317       371       372       318
       318       372       357       302
       364       373       319       309
       319       373       374       320
       320       374       365       310
       367       375       321       312
       321       375       376       322
       322       376       377       323
