# Probe 0 (0 0 0)
#             Probe                   0
#              Time
                  1       37007.0938002
