# Probe 0 (0 0 0)
#             Probe                   0
#              Time
                  1       4958.43203828
