# Probe 0 (0 0 0)
#             Probe                   0
#              Time
                  1       35.4263362915
