# Probe 0 (0 0 0)
#             Probe                   0
#              Time
                  1       148809.135615
