# Probe 0 (0 0 0)
#             Probe                   0
#              Time
                  1       7479.47115708
