# Probe 0 (0 0 0)
#             Probe                   0
#              Time
                  1       1710.86550224
