# Probe 0 (0 0 0)
#             Probe                   0
#              Time
                  1       15710.2595822
