# Probe 0 (0 0 0)
#             Probe                   0
#              Time
                  1       8674.16181825
