# Probe 0 (0 0 0)
#             Probe                   0
#              Time
                  1       17299.3291002
