# Probe 0 (0 0 0)
#             Probe                   0
#              Time
                  1       25770.2231894
