# Probe 0 (0 0 0)
#             Probe                   0
#              Time
                  1       26592.8039766
