# Probe 0 (0 0 0)
#             Probe                   0
#              Time
                  1       2354.56890448
