# Probe 0 (0 0 0)
#             Probe                   0
#              Time
                  1       29754.3343774
