z,G,ILambda_0_0,ILambda_1_0,a
-0.6,0,0,0,8.33333333333
-0.593969849246,30071.4539382,953.969481086,953.969481086,8.33333333333
-0.587939698492,60142.9078764,1907.93896217,1907.93896217,8.33333333333
-0.581909547739,90214.3618146,2861.90844326,2861.90844326,8.33333333333
-0.575879396985,120285.815753,3815.87792435,3815.87792435,8.33333333333
-0.569849246231,150357.269691,4769.84740543,4769.84740543,8.33333333333
-0.563819095477,180428.723629,5723.81688652,5723.81688652,8.33333333333
-0.557788944724,210500.177567,6677.7863676,6677.7863676,8.33333333333
-0.55175879397,240571.631506,7631.75584869,7631.75584869,8.33333333333
-0.545728643216,245293.570158,8194.12954802,8194.12954802,8.33333333333
-0.539698492462,239577.473104,8595.25792546,8595.25792546,8.33333333333
-0.533668341709,233861.376049,8996.38630289,8996.38630289,8.33333333333
-0.527638190955,228145.278995,9397.51468032,9397.51468032,8.33333333333
-0.521608040201,222429.181941,9798.64305776,9798.64305776,8.33333333333
-0.515577889447,216713.084887,10199.7714352,10199.7714352,8.33333333333
-0.509547738693,210996.987833,10600.8998126,10600.8998126,8.33333333333
-0.50351758794,205280.890779,11002.0281901,11002.0281901,8.33333333333
-0.497487437186,202488.171617,11348.3311513,11348.3311513,8.33333333333
-0.491457286432,203788.181506,11617.8785298,11617.8785298,8.33333333333
-0.485427135678,205088.191394,11887.4259084,11887.4259084,8.33333333333
-0.479396984925,206388.201283,12156.973287,12156.973287,8.33333333333
-0.473366834171,207688.211172,12426.5206655,12426.5206655,8.33333333333
-0.467336683417,208988.22106,12696.0680441,12696.0680441,8.33333333333
-0.461306532663,210288.230949,12965.6154226,12965.6154226,8.33333333333
-0.45527638191,211588.240837,13235.1628012,13235.1628012,8.33333333333
-0.449246231156,212813.512561,13493.6578224,13493.6578224,8.33333333333
-0.443216080402,213515.617128,13674.7863423,13674.7863423,8.33333333333
-0.437185929648,214217.721696,13855.9148621,13855.9148621,8.33333333333
-0.431155778894,214919.826264,14037.043382,14037.043382,8.33333333333
-0.425125628141,215621.930831,14218.1719019,14218.1719019,8.33333333333
-0.419095477387,216324.035399,14399.3004218,14399.3004218,8.33333333333
-0.413065326633,217026.139967,14580.4289417,14580.4289417,8.33333333333
-0.407035175879,217728.244534,14761.5574615,14761.5574615,8.33333333333
-0.401005025126,218430.349102,14942.6859814,14942.6859814,8.33333333333
-0.394974874372,218874.756265,15074.301941,15074.301941,8.33333333333
-0.388944723618,219267.623947,15196.0153885,15196.0153885,8.33333333333
-0.382914572864,219660.491629,15317.728836,15317.728836,8.33333333333
-0.376884422111,220053.359311,15439.4422835,15439.4422835,8.33333333333
-0.370854271357,220446.226993,15561.1557311,15561.1557311,8.33333333333
-0.364824120603,220839.094676,15682.8691786,15682.8691786,8.33333333333
-0.358793969849,221231.962358,15804.5826261,15804.5826261,8.33333333333
-0.352763819095,221624.83004,15926.2960736,15926.2960736,8.33333333333
-0.346733668342,221928.090797,16026.3833086,16026.3833086,8.33333333333
-0.340703517588,222155.530308,16108.1714407,16108.1714407,8.33333333333
-0.334673366834,222382.96982,16189.9595727,16189.9595727,8.33333333333
-0.32864321608,222610.409332,16271.7477048,16271.7477048,8.33333333333
-0.322613065327,222837.848844,16353.5358369,16353.5358369,8.33333333333
-0.316582914573,223065.288356,16435.323969,16435.323969,8.33333333333
-0.310552763819,223292.727868,16517.112101,16517.112101,8.33333333333
-0.304522613065,223520.16738,16598.9002331,16598.9002331,8.33333333333
-0.298492462312,223724.638233,16673.9811832,16673.9811832,8.33333333333
-0.292462311558,223860.203108,16728.9405873,16728.9405873,8.33333333333
-0.286432160804,223995.767983,16783.8999914,16783.8999914,8.33333333333
-0.28040201005,224131.332859,16838.8593956,16838.8593956,8.33333333333
-0.274371859296,224266.897734,16893.8187997,16893.8187997,8.33333333333
-0.268341708543,224402.46261,16948.7782038,16948.7782038,8.33333333333
-0.262311557789,224538.027485,17003.7376079,17003.7376079,8.33333333333
-0.256281407035,224673.592361,17058.697012,17058.697012,8.33333333333
-0.250251256281,224809.157236,17113.6564161,17113.6564161,8.33333333333
-0.244221105528,224893.811773,17151.3388175,17151.3388175,8.33333333333
-0.238190954774,224976.252817,17188.2700449,17188.2700449,8.33333333333
-0.23216080402,225058.69386,17225.2012722,17225.2012722,8.33333333333
-0.226130653266,225141.134904,17262.1324996,17262.1324996,8.33333333333
-0.220100502513,225223.575948,17299.063727,17299.063727,8.33333333333
-0.214070351759,225306.016992,17335.9949543,17335.9949543,8.33333333333
-0.208040201005,225388.458035,17372.9261817,17372.9261817,8.33333333333
-0.202010050251,225470.899079,17409.857409,17409.857409,8.33333333333
-0.195979899497,225531.936769,17438.7123395,17438.7123395,8.33333333333
-0.189949748744,225582.272783,17463.5291216,17463.5291216,8.33333333333
-0.18391959799,225632.608796,17488.3459037,17488.3459037,8.33333333333
-0.177889447236,225682.944809,17513.1626857,17513.1626857,8.33333333333
-0.171859296482,225733.280823,17537.9794678,17537.9794678,8.33333333333
-0.165829145729,225783.616836,17562.7962498,17562.7962498,8.33333333333
-0.159798994975,225833.952849,17587.6130319,17587.6130319,8.33333333333
-0.153768844221,225884.288863,17612.429814,17612.429814,8.33333333333
-0.147738693467,225926.949206,17634.1938791,17634.1938791,8.33333333333
-0.141708542714,225956.816766,17650.8700829,17650.8700829,8.33333333333
-0.13567839196,225986.684326,17667.5462866,17667.5462866,8.33333333333
-0.129648241206,226016.551885,17684.2224904,17684.2224904,8.33333333333
-0.123618090452,226046.419445,17700.8986941,17700.8986941,8.33333333333
-0.117587939698,226076.287005,17717.5748979,17717.5748979,8.33333333333
-0.111557788945,226106.154565,17734.2511016,17734.2511016,8.33333333333
-0.105527638191,226136.022125,17750.9273053,17750.9273053,8.33333333333
-0.0994974874372,226164.717128,17767.1476551,17767.1476551,8.33333333333
-0.0934673366834,226180.514006,17778.3536112,17778.3536112,8.33333333333
-0.0874371859296,226196.310884,17789.5595674,17789.5595674,8.33333333333
-0.0814070351759,226212.107762,17800.7655235,17800.7655235,8.33333333333
-0.0753768844221,226227.90464,17811.9714797,17811.9714797,8.33333333333
-0.0693467336683,226243.701519,17823.1774358,17823.1774358,8.33333333333
-0.0633165829146,226259.498397,17834.3833919,17834.3833919,8.33333333333
-0.0572864321608,226275.295275,17845.5893481,17845.5893481,8.33333333333
-0.051256281407,226291.092153,17856.7953042,17856.7953042,8.33333333333
-0.0452261306533,226298.293479,17865.0912062,17865.0912062,8.33333333333
-0.0391959798995,226303.232818,17872.6213045,17872.6213045,8.33333333333
-0.0331658291457,226308.172157,17880.1514027,17880.1514027,8.33333333333
-0.027135678392,226313.111496,17887.681501,17887.681501,8.33333333333
-0.0211055276382,226318.050835,17895.2115993,17895.2115993,8.33333333333
-0.0150753768844,226322.990174,17902.7416975,17902.7416975,8.33333333333
-0.00904522613065,226327.929513,17910.2717958,17910.2717958,8.33333333333
-0.00301507537688,226332.868852,17917.8018941,17917.8018941,8.33333333333
0.00301507537688,226332.868852,17924.096954,17924.096954,8.33333333333
0.00904522613065,226327.929513,17929.1569756,17929.1569756,8.33333333333
0.0150753768844,226322.990174,17934.2169972,17934.2169972,8.33333333333
0.0211055276382,226318.050835,17939.2770188,17939.2770188,8.33333333333
0.027135678392,226313.111496,17944.3370404,17944.3370404,8.33333333333
0.0331658291457,226308.172157,17949.3970619,17949.3970619,8.33333333333
0.0391959798995,226303.232818,17954.4570835,17954.4570835,8.33333333333
0.0452261306533,226298.293479,17959.5171051,17959.5171051,8.33333333333
0.051256281407,226291.092153,17964.2313299,17964.2313299,8.33333333333
0.0572864321608,226275.295275,17967.6315271,17967.6315271,8.33333333333
0.0633165829146,226259.498397,17971.0317242,17971.0317242,8.33333333333
0.0693467336683,226243.701519,17974.4319213,17974.4319213,8.33333333333
0.0753768844221,226227.90464,17977.8321184,17977.8321184,8.33333333333
0.0814070351759,226212.107762,17981.2323155,17981.2323155,8.33333333333
0.0874371859296,226196.310884,17984.6325127,17984.6325127,8.33333333333
0.0934673366834,226180.514006,17988.0327098,17988.0327098,8.33333333333
0.0994974874372,226164.717128,17991.4329069,17991.4329069,8.33333333333
0.105527638191,226136.022125,17993.8106935,17993.8106935,8.33333333333
0.111557788945,226106.154565,17996.0955336,17996.0955336,8.33333333333
0.117587939698,226076.287005,17998.3803738,17998.3803738,8.33333333333
0.123618090452,226046.419445,18000.6652139,18000.6652139,8.33333333333
0.129648241206,226016.551885,18002.9500541,18002.9500541,8.33333333333
0.13567839196,225986.684326,18005.2348942,18005.2348942,8.33333333333
0.141708542714,225956.816766,18007.5197343,18007.5197343,8.33333333333
0.147738693467,225926.949206,18009.8045745,18009.8045745,8.33333333333
0.153768844221,225884.288863,18011.6209836,18011.6209836,8.33333333333
0.159798994975,225833.952849,18013.1563342,18013.1563342,8.33333333333
0.165829145729,225783.616836,18014.6916847,18014.6916847,8.33333333333
0.171859296482,225733.280823,18016.2270353,18016.2270353,8.33333333333
0.177889447236,225682.944809,18017.7623858,18017.7623858,8.33333333333
0.18391959799,225632.608796,18019.2977363,18019.2977363,8.33333333333
0.189949748744,225582.272783,18020.8330869,18020.8330869,8.33333333333
0.195979899497,225531.936769,18022.3684374,18022.3684374,8.33333333333
0.202010050251,225470.899079,18023.7359091,18023.7359091,8.33333333333
0.208040201005,225388.458035,18024.767623,18024.767623,8.33333333333
0.214070351759,225306.016992,18025.7993368,18025.7993368,8.33333333333
0.220100502513,225223.575948,18026.8310507,18026.8310507,8.33333333333
0.226130653266,225141.134904,18027.8627646,18027.8627646,8.33333333333
0.23216080402,225058.69386,18028.8944785,18028.8944785,8.33333333333
0.238190954774,224976.252817,18029.9261924,18029.9261924,8.33333333333
0.244221105528,224893.811773,18030.9579062,18030.9579062,8.33333333333
0.250251256281,224809.157236,18031.9755189,18031.9755189,8.33333333333
0.256281407035,224673.592361,18032.6688026,18032.6688026,8.33333333333
0.262311557789,224538.027485,18033.3620863,18033.3620863,8.33333333333
0.268341708543,224402.46261,18034.05537,18034.05537,8.33333333333
0.274371859296,224266.897734,18034.7486537,18034.7486537,8.33333333333
0.28040201005,224131.332859,18035.4419374,18035.4419374,8.33333333333
0.286432160804,223995.767983,18036.1352211,18036.1352211,8.33333333333
0.292462311558,223860.203108,18036.8285049,18036.8285049,8.33333333333
0.298492462312,223724.638233,18037.5217886,18037.5217886,8.33333333333
0.304522613065,223520.16738,18038.0445104,18038.0445104,8.33333333333
0.310552763819,223292.727868,18038.5103782,18038.5103782,8.33333333333
0.316582914573,223065.288356,18038.976246,18038.976246,8.33333333333
0.322613065327,222837.848844,18039.4421139,18039.4421139,8.33333333333
0.32864321608,222610.409332,18039.9079817,18039.9079817,8.33333333333
0.334673366834,222382.96982,18040.3738495,18040.3738495,8.33333333333
0.340703517588,222155.530308,18040.8397174,18040.8397174,8.33333333333
0.346733668342,221928.090797,18041.3055852,18041.3055852,8.33333333333
0.352763819095,221624.83004,18041.7014118,18041.7014118,8.33333333333
0.358793969849,221231.962358,18042.0144623,18042.0144623,8.33333333333
0.364824120603,220839.094676,18042.3275128,18042.3275128,8.33333333333
0.370854271357,220446.226993,18042.6405634,18042.6405634,8.33333333333
0.376884422111,220053.359311,18042.9536139,18042.9536139,8.33333333333
0.382914572864,219660.491629,18043.2666644,18043.2666644,8.33333333333
0.388944723618,219267.623947,18043.579715,18043.579715,8.33333333333
0.394974874372,218874.756265,18043.8927655,18043.8927655,8.33333333333
0.401005025126,218430.349102,18044.1887012,18044.1887012,8.33333333333
0.407035175879,217728.244534,18044.3990627,18044.3990627,8.33333333333
0.413065326633,217026.139967,18044.6094241,18044.6094241,8.33333333333
0.419095477387,216324.035399,18044.8197856,18044.8197856,8.33333333333
0.425125628141,215621.930831,18045.030147,18045.030147,8.33333333333
0.431155778894,214919.826264,18045.2405085,18045.2405085,8.33333333333
0.437185929648,214217.721696,18045.45087,18045.45087,8.33333333333
0.443216080402,213515.617128,18045.6612314,18045.6612314,8.33333333333
0.449246231156,212813.512561,18045.8715929,18045.8715929,8.33333333333
0.45527638191,211588.240837,18046.0215756,18046.0215756,8.33333333333
0.461306532663,210288.230949,18046.1629328,18046.1629328,8.33333333333
0.467336683417,208988.22106,18046.30429,18046.30429,8.33333333333
0.473366834171,207688.211172,18046.4456472,18046.4456472,8.33333333333
0.479396984925,206388.201283,18046.5870044,18046.5870044,8.33333333333
0.485427135678,205088.191394,18046.7283615,18046.7283615,8.33333333333
0.491457286432,203788.181506,18046.8697187,18046.8697187,8.33333333333
0.497487437186,202488.171617,18047.0110759,18047.0110759,8.33333333333
0.50351758794,205280.890779,19347.6547701,19347.6547701,8.33333333333
0.509547738693,210996.987833,21577.228705,21577.228705,8.33333333333
0.515577889447,216713.084887,23806.8026399,23806.8026399,8.33333333333
0.521608040201,222429.181941,26036.3765747,26036.3765747,8.33333333333
0.527638190955,228145.278995,28265.9505096,28265.9505096,8.33333333333
0.533668341709,233861.376049,30495.5244445,30495.5244445,8.33333333333
0.539698492462,239577.473104,32725.0983794,32725.0983794,8.33333333333
0.545728643216,245293.570158,34954.6723143,34954.6723143,8.33333333333
0.55175879397,240571.631506,35248.8398969,35248.8398969,8.33333333333
0.557788944724,210500.177567,30842.7349098,30842.7349098,8.33333333333
0.563819095477,180428.723629,26436.6299227,26436.6299227,8.33333333333
0.569849246231,150357.269691,22030.5249356,22030.5249356,8.33333333333
0.575879396985,120285.815753,17624.4199484,17624.4199484,8.33333333333
0.581909547739,90214.3618146,13218.3149613,13218.3149613,8.33333333333
0.587939698492,60142.9078764,8812.20997422,8812.20997422,8.33333333333
0.593969849246,30071.4539382,4406.10498711,4406.10498711,8.33333333333
0.6,0,0,0,8.33333333333
