# Probe 0 (0 0 0)
#             Probe                   0
#              Time
                  1       10594.3568833
