# Probe 0 (0 0 0)
#             Probe                   0
#              Time
                  1        8606.1410735
