# Probe 0 (0 0 0)
#             Probe                   0
#              Time
                  1        26.459890585
