# Probe 0 (0 0 0)
#             Probe                   0
#              Time
                  1       152926.936701
