# Probe 0 (0 0 0)
#             Probe                   0
#              Time
                  1       11383.9871568
