# Probe 0 (0 0 0)
#             Probe                   0
#              Time
                  1       18036.9520959
