# Probe 0 (0 0 0.6) at patch b1_xy_z2__WW_top with a distance of 0 m to the original point (0 0 0.6)
#             Probe                   0
#              Time
                  1                1000
