# Probe 0 (0 0 0)
#             Probe                   0
#              Time
                  1       17348.2722286
