# Probe 0 (0 0 0)
#             Probe                   0
#              Time
                  1       16576.7165394
