# Probe 0 (0 0 0)
#             Probe                   0
#              Time
                  1       15293.8855592
