# Probe 0 (0 0 0)
#             Probe                   0
#              Time
                  1       7717.60068679
