# Probe 0 (0 0 0)
#             Probe                   0
#              Time
                  1       11842.7007054
