# Probe 0 (0 0 0)
#             Probe                   0
#              Time
                  1       17982.9559942
