# Probe 0 (0 0 0)
#             Probe                   0
#              Time
                  1        13808.426175
