# Probe 0 (0 0 0)
#             Probe                   0
#              Time
                  1       17920.6029985
