# Probe 0 (0 0 0)
#             Probe                   0
#              Time
                  1       18049.4186828
