# Probe 0 (0 0 0)
#             Probe                   0
#              Time
                  1       1704.16820887
