# Probe 0 (0 0 0)
#             Probe                   0
#              Time
                  1       986.201898744
