# Probe 0 (0 0 0)
#             Probe                   0
#              Time
                  1       2185.67813221
