# Probe 0 (0 0 0)
#             Probe                   0
#              Time
                  1       4656.85161179
