# Probe 0 (0 0 0)
#             Probe                   0
#              Time
                  1       31420.0772766
