# Probe 0 (0 0 0)
#             Probe                   0
#              Time
                  1       1259.35817246
