# Probe 0 (0 0 0)
#             Probe                   0
#              Time
                  1       24.5702268805
