# Probe 0 (0 0 0)
#             Probe                   0
#              Time
                  1        542.21092855
