# Probe 0 (0 0 0)
#             Probe                   0
#              Time
                  1       22347.7872136
