# Probe 0 (0 0 0)
#             Probe                   0
#              Time
                  1       878.499492209
