# Probe 0 (0 0 0)
#             Probe                   0
#              Time
                  1        1331.2695568
