# Probe 0 (0 0 0)
#             Probe                   0
#              Time
                  1       18045.7145167
