# Probe 0 (0 0 0)
#             Probe                   0
#              Time
                  1       544.250119602
