# Probe 0 (0 0 0)
#             Probe                   0
#              Time
                  1       20188.1359661
