# Probe 0 (0 0 0)
#             Probe                   0
#              Time
                  1       715.756808524
