Ensight Geometry File
Written by OpenFOAM 2306
node id assign
element id assign
part
         1
geometry
coordinates
       109
-4.80000e+00
-4.80000e+00
-4.40000e+00
-4.40000e+00
-4.00000e+00
-4.00000e+00
-3.60000e+00
-3.60000e+00
-3.20000e+00
-2.80000e+00
-2.80000e+00
-2.40000e+00
-2.40000e+00
-2.00000e+00
-2.00000e+00
-1.60000e+00
-1.20000e+00
-1.20000e+00
-8.00000e-01
-8.00000e-01
-4.00000e-01
 0.00000e+00
 0.00000e+00
 4.00000e-01
 4.00000e-01
 8.00000e-01
 8.00000e-01
 1.20000e+00
 1.20000e+00
 2.60000e+00
 2.80000e+00
 2.80000e+00
 2.60000e+00
 3.20000e+00
 3.20000e+00
 3.60000e+00
 3.60000e+00
 3.86667e+00
 3.86667e+00
-3.20000e+00
-1.60000e+00
-4.00000e-01
 1.60000e+00
 1.60000e+00
 2.00000e+00
 2.00000e+00
 2.40000e+00
 2.40000e+00
 4.00000e+00
 4.00000e+00
 4.40000e+00
 4.40000e+00
 4.80000e+00
 4.80000e+00
-4.80000e+00
-4.40000e+00
-4.00000e+00
-3.60000e+00
-3.20000e+00
-3.20000e+00
-2.80000e+00
-2.40000e+00
-2.00000e+00
-1.60000e+00
-1.20000e+00
-8.00000e-01
-4.00000e-01
 0.00000e+00
 4.00000e-01
 8.00000e-01
 1.20000e+00
 1.60000e+00
 2.60000e+00
 2.80000e+00
 3.20000e+00
 3.60000e+00
 3.86667e+00
 2.00000e+00
 2.40000e+00
 4.00000e+00
 4.40000e+00
 4.80000e+00
-4.80000e+00
-4.40000e+00
-4.00000e+00
-3.60000e+00
-3.20000e+00
-2.80000e+00
-2.40000e+00
-2.00000e+00
-1.60000e+00
-1.20000e+00
-8.00000e-01
-4.00000e-01
 0.00000e+00
 4.00000e-01
 8.00000e-01
 1.20000e+00
 1.60000e+00
 2.60000e+00
 2.80000e+00
 3.20000e+00
 3.60000e+00
 3.86667e+00
 2.00000e+00
 2.40000e+00
 4.00000e+00
 4.40000e+00
 4.80000e+00
 0.00000e+00
 0.00000e+00
 0.00000e+00
 0.00000e+00
 0.00000e+00
 0.00000e+00
 0.00000e+00
 0.00000e+00
 0.00000e+00
 0.00000e+00
 0.00000e+00
 0.00000e+00
 0.00000e+00
 0.00000e+00
 0.00000e+00
 0.00000e+00
 0.00000e+00
 0.00000e+00
 0.00000e+00
 7.40149e-17
 0.00000e+00
 0.00000e+00
 0.00000e+00
 0.00000e+00
 0.00000e+00
 3.70074e-17
 3.70074e-17
 0.00000e+00
 0.00000e+00
 0.00000e+00
 3.70074e-17
 3.70074e-17
 0.00000e+00
 0.00000e+00
 0.00000e+00
 5.55112e-17
 5.55112e-17
-3.08149e-33
-3.08149e-33
-7.40149e-17
-7.40149e-17
-7.40149e-17
-7.40149e-17
 0.00000e+00
-3.70074e-17
-3.70074e-17
-3.70074e-17
-3.70074e-17
-2.77556e-17
-2.77556e-17
-6.01371e-17
-6.01371e-17
 0.00000e+00
 0.00000e+00
 0.00000e+00
 0.00000e+00
 0.00000e+00
 0.00000e+00
 7.40149e-17
 0.00000e+00
 0.00000e+00
 0.00000e+00
 0.00000e+00
 0.00000e+00
 0.00000e+00
 0.00000e+00
 0.00000e+00
 0.00000e+00
 0.00000e+00
 3.70074e-17
 0.00000e+00
 0.00000e+00
 0.00000e+00
 3.70074e-17
 0.00000e+00
 5.55112e-17
-3.08149e-33
-3.70074e-17
-3.70074e-17
-2.77556e-17
-5.55112e-17
 0.00000e+00
 0.00000e+00
 0.00000e+00
 0.00000e+00
 0.00000e+00
 0.00000e+00
 0.00000e+00
 0.00000e+00
 0.00000e+00
 0.00000e+00
 0.00000e+00
 7.40149e-17
 0.00000e+00
 0.00000e+00
 0.00000e+00
 3.70074e-17
 0.00000e+00
 0.00000e+00
 0.00000e+00
 3.70074e-17
 0.00000e+00
 5.55112e-17
-3.08149e-33
-3.70074e-17
-3.70074e-17
-2.77556e-17
-6.01371e-17
 0.00000e+00
-6.00000e-01
-2.00000e-01
-2.00000e-01
-6.00000e-01
-2.00000e-01
-6.00000e-01
-2.00000e-01
-6.00000e-01
-6.00000e-01
-2.00000e-01
-6.00000e-01
-2.00000e-01
-6.00000e-01
-2.00000e-01
-6.00000e-01
-6.00000e-01
-2.00000e-01
-6.00000e-01
-2.00000e-01
-6.00000e-01
-6.00000e-01
-2.00000e-01
-6.00000e-01
-2.00000e-01
-6.00000e-01
-2.00000e-01
-6.00000e-01
-2.00000e-01
-6.00000e-01
-2.00000e-01
-2.00000e-01
-6.00000e-01
-6.00000e-01
-2.00000e-01
-6.00000e-01
-2.00000e-01
-6.00000e-01
-2.00000e-01
-6.00000e-01
-2.00000e-01
-2.00000e-01
-2.00000e-01
-2.00000e-01
-6.00000e-01
-2.00000e-01
-6.00000e-01
-2.00000e-01
-6.00000e-01
-2.00000e-01
-6.00000e-01
-2.00000e-01
-6.00000e-01
-2.00000e-01
-6.00000e-01
 2.00000e-01
 2.00000e-01
 2.00000e-01
 2.00000e-01
 2.00000e-01
 0.00000e+00
 2.00000e-01
 2.00000e-01
 2.00000e-01
 2.00000e-01
 2.00000e-01
 2.00000e-01
 2.00000e-01
 2.00000e-01
 2.00000e-01
 2.00000e-01
 2.00000e-01
 2.00000e-01
 2.00000e-01
 2.00000e-01
 2.00000e-01
 2.00000e-01
 2.00000e-01
 2.00000e-01
 2.00000e-01
 2.00000e-01
 2.00000e-01
 2.00000e-01
 6.00000e-01
 6.00000e-01
 6.00000e-01
 6.00000e-01
 6.00000e-01
 6.00000e-01
 6.00000e-01
 6.00000e-01
 6.00000e-01
 6.00000e-01
 6.00000e-01
 6.00000e-01
 6.00000e-01
 6.00000e-01
 6.00000e-01
 6.00000e-01
 6.00000e-01
 6.00000e-01
 6.00000e-01
 6.00000e-01
 6.00000e-01
 6.00000e-01
 6.00000e-01
 6.00000e-01
 6.00000e-01
 6.00000e-01
 6.00000e-01
tria3
        16
         9        10        11
        16        17        18
        20        19        21
        21        22        23
         9        40        10
        16        41        17
        19        42        21
        21        42        22
        61        60        59
        14        63        64
        19        66        67
        28        71        72
         7        60        40
        14        64        41
        19        67        42
        28        72        43
quad4
        71
         1         2         3         4
         4         3         5         6
         6         5         7         8
        11        10        12        13
        13        12        14        15
        18        17        19        20
        23        22        24        25
        25        24        26        27
        27        26        28        29
        30        31        32        33
        32        31        34        35
        35        34        36        37
        36        38        39        37
         8         7        40         9
        15        14        41        16
        29        28        43        44
        44        43        45        46
        46        45        47        48
        48        47        30        33
        38        49        50        39
        50        49        51        52
        52        51        53        54
         2        55        56         3
         3        56        57         5
         5        57        58         7
         7        58        59        60
        10        61        62        12
        12        62        63        14
        17        65        66        19
        22        68        69        24
        24        69        70        26
        26        70        71        28
        73        74        31        30
        31        74        75        34
        34        75        76        36
        76        77        38        36
        60        61        10        40
        64        65        17        41
        67        68        22        42
        72        78        45        43
        45        78        79        47
        47        79        73        30
        77        80        49        38
        49        80        81        51
        51        81        82        53
        55        83        84        56
        56        84        85        57
        57        85        86        58
        58        86        87        59
        59        87        88        61
        61        88        89        62
        62        89        90        63
        63        90        91        64
        64        91        92        65
        65        92        93        66
        66        93        94        67
        67        94        95        68
        68        95        96        69
        69        96        97        70
        70        97        98        71
        71        98        99        72
       100       101        74        73
        74       101       102        75
        75       102       103        76
       103       104        77        76
        72        99       105        78
        78       105       106        79
        79       106       100        73
       104       107        80        77
        80       107       108        81
        81       108       109        82
