# Probe 0 (0 0 0)
#             Probe                   0
#              Time
                  1       3177.16518816
