# Probe 0 (0 0 0)
#             Probe                   0
#              Time
                  1       933.713017578
