# Probe 0 (0 0 0)
#             Probe                   0
#              Time
                  1        16971.529493
