# Probe 0 (0 0 0)
#             Probe                   0
#              Time
                  1       632.557787658
