# Probe 0 (0 0 0)
#             Probe                   0
#              Time
                  1       13349.7176969
