# Probe 0 (0 0 0)
#             Probe                   0
#              Time
                  1       13827.6796577
