# Probe 0 (0 0 0)
#             Probe                   0
#              Time
                  1       1421.22341528
