# Probe 0 (0 0 0)
#             Probe                   0
#              Time
                  1       17622.3326337
