# Probe 0 (0 0 0)
#             Probe                   0
#              Time
                  1        519.74073367
