# Probe 0 (0 0 0)
#             Probe                   0
#              Time
                  1       1225.25763785
