# Probe 0 (0 0 0)
#             Probe                   0
#              Time
                  1       849.650983308
