# Probe 0 (0 0 0)
#             Probe                   0
#              Time
                  1       44.4520640087
