# Probe 0 (0 0 0)
#             Probe                   0
#              Time
                  1        1.2508428991
