# Probe 0 (0 0 0)
#             Probe                   0
#              Time
                  1       9897.94640823
