# Probe 0 (0 0 0)
#             Probe                   0
#              Time
                  1       5125.98171948
