# Probe 0 (0 0 0)
#             Probe                   0
#              Time
                  1       646.776858672
