# Probe 0 (0 0 0)
#             Probe                   0
#              Time
                  1       554.294174035
