# Probe 0 (0 0 0)
#             Probe                   0
#              Time
                  1       14198.8025081
