z,G,ILambda_0_0,ILambda_1_0,a
-0.6,0,0,0,0.0833333333333
-0.593969849246,2695.36587636,13.9170605,13.9170605,0.0833333333333
-0.587939698492,5390.73175273,27.8341209999,27.8341209999,0.0833333333333
-0.581909547739,8086.09762909,41.7511814999,41.7511814999,0.0833333333333
-0.575879396985,10781.4635055,55.6682419999,55.6682419999,0.0833333333333
-0.569849246231,13476.8293818,69.5853024999,69.5853024999,0.0833333333333
-0.563819095477,16172.1952582,83.5023629998,83.5023629998,0.0833333333333
-0.557788944724,18867.5611345,97.4194234998,97.4194234998,0.0833333333333
-0.55175879397,21562.9270109,111.336484,111.336484,0.0833333333333
-0.545728643216,24258.2928873,125.2535445,125.2535445,0.0833333333333
-0.539698492462,26953.6587636,139.170605,139.170605,0.0833333333333
-0.533668341709,29649.02464,153.0876655,153.0876655,0.0833333333333
-0.527638190955,32344.3905164,167.004726,167.004726,0.0833333333333
-0.521608040201,35039.7563927,180.9217865,180.9217865,0.0833333333333
-0.515577889447,37735.1222691,194.838847,194.838847,0.0833333333333
-0.509547738693,40430.4881454,208.7559075,208.7559075,0.0833333333333
-0.50351758794,43125.8540218,222.672968,222.672968,0.0833333333333
-0.497487437186,45821.2198982,236.5900285,236.5900285,0.0833333333333
-0.491457286432,48516.5857745,250.507089,250.507089,0.0833333333333
-0.485427135678,51211.9516509,264.424149499,264.424149499,0.0833333333333
-0.479396984925,53907.3175273,278.341209999,278.341209999,0.0833333333333
-0.473366834171,56602.6834036,292.258270499,292.258270499,0.0833333333333
-0.467336683417,59298.04928,306.175330999,306.175330999,0.0833333333333
-0.461306532663,61993.4151564,320.092391499,320.092391499,0.0833333333333
-0.45527638191,64688.7810327,334.009451999,334.009451999,0.0833333333333
-0.449246231156,67384.1469091,347.926512499,347.926512499,0.0833333333333
-0.443216080402,70079.5127854,361.843572999,361.843572999,0.0833333333333
-0.437185929648,72774.8786618,375.760633499,375.760633499,0.0833333333333
-0.431155778894,75470.2445382,389.677693999,389.677693999,0.0833333333333
-0.425125628141,78165.6104145,403.594754499,403.594754499,0.0833333333333
-0.419095477387,80860.9762909,417.511814999,417.511814999,0.0833333333333
-0.413065326633,83556.3421673,431.428875499,431.428875499,0.0833333333333
-0.407035175879,86251.7080436,445.345935999,445.345935999,0.0833333333333
-0.401005025126,88947.07392,459.262996499,459.262996499,0.0833333333333
-0.394974874372,91642.4397963,473.180056999,473.180056999,0.0833333333333
-0.388944723618,94337.8056727,487.097117499,487.097117499,0.0833333333333
-0.382914572864,97033.1715491,501.014177999,501.014177999,0.0833333333333
-0.376884422111,99728.5374254,514.931238499,514.931238499,0.0833333333333
-0.370854271357,102423.903302,528.848298999,528.848298999,0.0833333333333
-0.364824120603,105119.269178,542.765359499,542.765359499,0.0833333333333
-0.358793969849,107814.635055,556.682419999,556.682419999,0.0833333333333
-0.352763819095,110510.000931,570.599480499,570.599480499,0.0833333333333
-0.346733668342,113205.366807,584.516540999,584.516540999,0.0833333333333
-0.340703517588,115900.732684,598.433601499,598.433601499,0.0833333333333
-0.334673366834,118596.09856,612.350661999,612.350661999,0.0833333333333
-0.32864321608,121291.464436,626.267722499,626.267722499,0.0833333333333
-0.322613065327,123986.830313,640.184782999,640.184782999,0.0833333333333
-0.316582914573,126682.196189,654.101843499,654.101843499,0.0833333333333
-0.310552763819,129377.562065,668.018903999,668.018903999,0.0833333333333
-0.304522613065,132072.927942,681.935964499,681.935964499,0.0833333333333
-0.298492462312,134768.293818,695.853024999,695.853024999,0.0833333333333
-0.292462311558,137463.659695,709.770085499,709.770085499,0.0833333333333
-0.286432160804,140159.025571,723.687145999,723.687145999,0.0833333333333
-0.28040201005,142854.391447,737.604206499,737.604206499,0.0833333333333
-0.274371859296,145549.757324,751.521266999,751.521266999,0.0833333333333
-0.268341708543,148245.1232,765.438327498,765.438327498,0.0833333333333
-0.262311557789,150940.489076,779.355387998,779.355387998,0.0833333333333
-0.256281407035,153635.854953,793.272448498,793.272448498,0.0833333333333
-0.250251256281,156331.220829,807.189508998,807.189508998,0.0833333333333
-0.244221105528,159026.586705,821.106569498,821.106569498,0.0833333333333
-0.238190954774,161721.952582,835.023629998,835.023629998,0.0833333333333
-0.23216080402,164417.318458,848.940690498,848.940690498,0.0833333333333
-0.226130653266,167112.684335,862.857750998,862.857750998,0.0833333333333
-0.220100502513,169808.050211,876.774811498,876.774811498,0.0833333333333
-0.214070351759,172503.416087,890.691871998,890.691871998,0.0833333333333
-0.208040201005,175198.781964,904.608932498,904.608932498,0.0833333333333
-0.202010050251,177894.14784,918.525992998,918.525992998,0.0833333333333
-0.195979899497,178792.603132,1182.86089755,1182.86089755,0.0833333333333
-0.189949748744,178792.603132,1572.40472414,1572.40472414,0.0833333333333
-0.18391959799,178792.603132,1961.94855072,1961.94855072,0.0833333333333
-0.177889447236,178792.603132,2351.49237731,2351.49237731,0.0833333333333
-0.171859296482,178792.603132,2741.03620389,2741.03620389,0.0833333333333
-0.165829145729,178792.603132,3130.58003048,3130.58003048,0.0833333333333
-0.159798994975,178792.603132,3520.12385706,3520.12385706,0.0833333333333
-0.153768844221,178792.603132,3909.66768364,3909.66768364,0.0833333333333
-0.147738693467,178792.603132,4299.21151023,4299.21151023,0.0833333333333
-0.141708542714,178792.603132,4688.75533681,4688.75533681,0.0833333333333
-0.13567839196,178792.603132,5078.2991634,5078.2991634,0.0833333333333
-0.129648241206,178792.603132,5467.84298998,5467.84298998,0.0833333333333
-0.123618090452,178792.603132,5857.38681657,5857.38681657,0.0833333333333
-0.117587939698,178792.603132,6246.93064315,6246.93064315,0.0833333333333
-0.111557788945,178792.603132,6636.47446973,6636.47446973,0.0833333333333
-0.105527638191,178792.603132,7026.01829632,7026.01829632,0.0833333333333
-0.0994974874372,178792.603132,7415.5621229,7415.5621229,0.0833333333333
-0.0934673366834,178792.603132,7805.10594949,7805.10594949,0.0833333333333
-0.0874371859296,178792.603132,8194.64977607,8194.64977607,0.0833333333333
-0.0814070351759,178792.603132,8584.19360266,8584.19360266,0.0833333333333
-0.0753768844221,178792.603132,8973.73742924,8973.73742924,0.0833333333333
-0.0693467336683,178792.603132,9363.28125582,9363.28125582,0.0833333333333
-0.0633165829146,178792.603132,9752.82508241,9752.82508241,0.0833333333333
-0.0572864321608,178792.603132,10142.368909,10142.368909,0.0833333333333
-0.051256281407,178792.603132,10531.9127356,10531.9127356,0.0833333333333
-0.0452261306533,178792.603132,10921.4565622,10921.4565622,0.0833333333333
-0.0391959798995,178792.603132,11311.0003887,11311.0003887,0.0833333333333
-0.0331658291457,178792.603132,11700.5442153,11700.5442153,0.0833333333333
-0.027135678392,178792.603132,12090.0880419,12090.0880419,0.0833333333333
-0.0211055276382,178792.603132,12479.6318685,12479.6318685,0.0833333333333
-0.0150753768844,178792.603132,12869.1756951,12869.1756951,0.0833333333333
-0.00904522613065,178792.603132,13258.7195217,13258.7195217,0.0833333333333
-0.00301507537688,178792.603132,13648.2633483,13648.2633483,0.0833333333333
0.00301507537688,178792.603132,14037.8071748,14037.8071748,0.0833333333333
0.00904522613065,178792.603132,14427.3510014,14427.3510014,0.0833333333333
0.0150753768844,178792.603132,14816.894828,14816.894828,0.0833333333333
0.0211055276382,178792.603132,15206.4386546,15206.4386546,0.0833333333333
0.027135678392,178792.603132,15595.9824812,15595.9824812,0.0833333333333
0.0331658291457,178792.603132,15985.5263078,15985.5263078,0.0833333333333
0.0391959798995,178792.603132,16375.0701343,16375.0701343,0.0833333333333
0.0452261306533,178792.603132,16764.6139609,16764.6139609,0.0833333333333
0.051256281407,178792.603132,17154.1577875,17154.1577875,0.0833333333333
0.0572864321608,178792.603132,17543.7016141,17543.7016141,0.0833333333333
0.0633165829146,178792.603132,17933.2454407,17933.2454407,0.0833333333333
0.0693467336683,178792.603132,18322.7892673,18322.7892673,0.0833333333333
0.0753768844221,178792.603132,18712.3330938,18712.3330938,0.0833333333333
0.0814070351759,178792.603132,19101.8769204,19101.8769204,0.0833333333333
0.0874371859296,178792.603132,19491.420747,19491.420747,0.0833333333333
0.0934673366834,178792.603132,19880.9645736,19880.9645736,0.0833333333333
0.0994974874372,178792.603132,20270.5084002,20270.5084002,0.0833333333333
0.105527638191,178792.603132,20660.0522268,20660.0522268,0.0833333333333
0.111557788945,178792.603132,21049.5960534,21049.5960534,0.0833333333333
0.117587939698,178792.603132,21439.1398799,21439.1398799,0.0833333333333
0.123618090452,178792.603132,21828.6837065,21828.6837065,0.0833333333333
0.129648241206,178792.603132,22218.2275331,22218.2275331,0.0833333333333
0.13567839196,178792.603132,22607.7713597,22607.7713597,0.0833333333333
0.141708542714,178792.603132,22997.3151863,22997.3151863,0.0833333333333
0.147738693467,178792.603132,23386.8590129,23386.8590129,0.0833333333333
0.153768844221,178792.603132,23776.4028394,23776.4028394,0.0833333333333
0.159798994975,178792.603132,24165.946666,24165.946666,0.0833333333333
0.165829145729,178792.603132,24555.4904926,24555.4904926,0.0833333333333
0.171859296482,178792.603132,24945.0343192,24945.0343192,0.0833333333333
0.177889447236,178792.603132,25334.5781458,25334.5781458,0.0833333333333
0.18391959799,178792.603132,25724.1219724,25724.1219724,0.0833333333333
0.189949748744,178792.603132,26113.6657989,26113.6657989,0.0833333333333
0.195979899497,178792.603132,26503.2096255,26503.2096255,0.0833333333333
0.202010050251,177894.14784,26628.4185476,26628.4185476,0.0833333333333
0.208040201005,175198.781964,26224.9576605,26224.9576605,0.0833333333333
0.214070351759,172503.416087,25821.4967734,25821.4967734,0.0833333333333
0.220100502513,169808.050211,25418.0358863,25418.0358863,0.0833333333333
0.226130653266,167112.684335,25014.5749992,25014.5749992,0.0833333333333
0.23216080402,164417.318458,24611.1141121,24611.1141121,0.0833333333333
0.238190954774,161721.952582,24207.6532251,24207.6532251,0.0833333333333
0.244221105528,159026.586705,23804.192338,23804.192338,0.0833333333333
0.250251256281,156331.220829,23400.7314509,23400.7314509,0.0833333333333
0.256281407035,153635.854953,22997.2705638,22997.2705638,0.0833333333333
0.262311557789,150940.489076,22593.8096767,22593.8096767,0.0833333333333
0.268341708543,148245.1232,22190.3487896,22190.3487896,0.0833333333333
0.274371859296,145549.757324,21786.8879026,21786.8879026,0.0833333333333
0.28040201005,142854.391447,21383.4270155,21383.4270155,0.0833333333333
0.286432160804,140159.025571,20979.9661284,20979.9661284,0.0833333333333
0.292462311558,137463.659695,20576.5052413,20576.5052413,0.0833333333333
0.298492462312,134768.293818,20173.0443542,20173.0443542,0.0833333333333
0.304522613065,132072.927942,19769.5834671,19769.5834671,0.0833333333333
0.310552763819,129377.562065,19366.12258,19366.12258,0.0833333333333
0.316582914573,126682.196189,18962.661693,18962.661693,0.0833333333333
0.322613065327,123986.830313,18559.2008059,18559.2008059,0.0833333333333
0.32864321608,121291.464436,18155.7399188,18155.7399188,0.0833333333333
0.334673366834,118596.09856,17752.2790317,17752.2790317,0.0833333333333
0.340703517588,115900.732684,17348.8181446,17348.8181446,0.0833333333333
0.346733668342,113205.366807,16945.3572575,16945.3572575,0.0833333333333
0.352763819095,110510.000931,16541.8963705,16541.8963705,0.0833333333333
0.358793969849,107814.635055,16138.4354834,16138.4354834,0.0833333333333
0.364824120603,105119.269178,15734.9745963,15734.9745963,0.0833333333333
0.370854271357,102423.903302,15331.5137092,15331.5137092,0.0833333333333
0.376884422111,99728.5374254,14928.0528221,14928.0528221,0.0833333333333
0.382914572864,97033.1715491,14524.591935,14524.591935,0.0833333333333
0.388944723618,94337.8056727,14121.1310479,14121.1310479,0.0833333333333
0.394974874372,91642.4397963,13717.6701609,13717.6701609,0.0833333333333
0.401005025126,88947.07392,13314.2092738,13314.2092738,0.0833333333333
0.407035175879,86251.7080436,12910.7483867,12910.7483867,0.0833333333333
0.413065326633,83556.3421673,12507.2874996,12507.2874996,0.0833333333333
0.419095477387,80860.9762909,12103.8266125,12103.8266125,0.0833333333333
0.425125628141,78165.6104145,11700.3657254,11700.3657254,0.0833333333333
0.431155778894,75470.2445382,11296.9048384,11296.9048384,0.0833333333333
0.437185929648,72774.8786618,10893.4439513,10893.4439513,0.0833333333333
0.443216080402,70079.5127854,10489.9830642,10489.9830642,0.0833333333333
0.449246231156,67384.1469091,10086.5221771,10086.5221771,0.0833333333333
0.45527638191,64688.7810327,9683.06129002,9683.06129002,0.0833333333333
0.461306532663,61993.4151564,9279.60040294,9279.60040294,0.0833333333333
0.467336683417,59298.04928,8876.13951585,8876.13951585,0.0833333333333
0.473366834171,56602.6834036,8472.67862877,8472.67862877,0.0833333333333
0.479396984925,53907.3175273,8069.21774169,8069.21774169,0.0833333333333
0.485427135678,51211.9516509,7665.7568546,7665.7568546,0.0833333333333
0.491457286432,48516.5857745,7262.29596752,7262.29596752,0.0833333333333
0.497487437186,45821.2198982,6858.83508043,6858.83508043,0.0833333333333
0.50351758794,43125.8540218,6455.37419335,6455.37419335,0.0833333333333
0.509547738693,40430.4881454,6051.91330626,6051.91330626,0.0833333333333
0.515577889447,37735.1222691,5648.45241918,5648.45241918,0.0833333333333
0.521608040201,35039.7563927,5244.9915321,5244.9915321,0.0833333333333
0.527638190955,32344.3905164,4841.53064501,4841.53064501,0.0833333333333
0.533668341709,29649.02464,4438.06975793,4438.06975793,0.0833333333333
0.539698492462,26953.6587636,4034.60887084,4034.60887084,0.0833333333333
0.545728643216,24258.2928873,3631.14798376,3631.14798376,0.0833333333333
0.55175879397,21562.9270109,3227.68709667,3227.68709667,0.0833333333333
0.557788944724,18867.5611345,2824.22620959,2824.22620959,0.0833333333333
0.563819095477,16172.1952582,2420.76532251,2420.76532251,0.0833333333333
0.569849246231,13476.8293818,2017.30443542,2017.30443542,0.0833333333333
0.575879396985,10781.4635055,1613.84354834,1613.84354834,0.0833333333333
0.581909547739,8086.09762909,1210.38266125,1210.38266125,0.0833333333333
0.587939698492,5390.73175273,806.921774169,806.921774169,0.0833333333333
0.593969849246,2695.36587636,403.460887084,403.460887084,0.0833333333333
0.6,0,0,0,0.0833333333333
