# Probe 0 (0 0 0)
#             Probe                   0
#              Time
                  1       1.43136127541
