# Probe 0 (0 0 0)
#             Probe                   0
#              Time
                  1       6873.62137559
