# Probe 0 (0 0 0)
#             Probe                   0
#              Time
                  1        143353.00845
