# Probe 0 (0 0 0)
#             Probe                   0
#              Time
                  1       16661.9947636
