# Probe 0 (0 0 0)
#             Probe                   0
#              Time
                  1       475.121730499
