# Probe 0 (0 0 0)
#             Probe                   0
#              Time
                  1       28188.9062696
