# Probe 0 (0 0 0)
#             Probe                   0
#              Time
                  1       18047.4409505
