# Probe 0 (0 0 0)
#             Probe                   0
#              Time
                  1       32.9164811098
