# Probe 0 (0 0 0)
#             Probe                   0
#              Time
                  1       225904.077142
