# Probe 0 (0 0 0)
#             Probe                   0
#              Time
                  1       17746.5474283
