# Probe 0 (0 0 0)
#             Probe                   0
#              Time
                  1        150286.61167
