# Probe 0 (0 0 0)
#             Probe                   0
#              Time
                  1       7861.79481543
