# Probe 0 (0 0 0)
#             Probe                   0
#              Time
                  1       30.2391550272
