# Probe 0 (0 0 0)
#             Probe                   0
#              Time
                  1       2.40635549875
