# Probe 0 (0 0 0)
#             Probe                   0
#              Time
                  1       873.206309563
