# Probe 0 (0 0 0)
#             Probe                   0
#              Time
                  1       17981.5697881
