# Probe 0 (0 0 0)
#             Probe                   0
#              Time
                  1       17842.3868785
