# Probe 0 (0 0 0)
#             Probe                   0
#              Time
                  1       17657.4267771
