# Probe 0 (0 0 0)
#             Probe                   0
#              Time
                  1       18046.7449894
