# Probe 0 (0 0 0)
#             Probe                   0
#              Time
                  1       8094.55631172
