# Probe 0 (0 0 0)
#             Probe                   0
#              Time
                  1       3701.80018169
