# Probe 0 (0 0 0)
#             Probe                   0
#              Time
                  1       11551.6614575
