# Probe 0 (0 0 0)
#             Probe                   0
#              Time
                  1       151173.086001
