# Probe 0 (0 0 0)
#             Probe                   0
#              Time
                  1       10513.1514332
