# Probe 0 (0 0 0)
#             Probe                   0
#              Time
                  1       7025.73219417
