# Probe 0 (0 0 0)
#             Probe                   0
#              Time
                  1       30.9989983717
