# Probe 0 (0 0 0)
#             Probe                   0
#              Time
                  1       16655.8007824
