# Probe 0 (0 0 0)
#             Probe                   0
#              Time
                  1       8123.64520201
