# Probe 0 (0 0 0)
#             Probe                   0
#              Time
                  1       38.8974380227
