# Probe 0 (0 0 0)
#             Probe                   0
#              Time
                  1       4.71573253193
