# Probe 0 (0 0 0)
#             Probe                   0
#              Time
                  1       12979.7807007
