# Probe 0 (0 0 0)
#             Probe                   0
#              Time
                  1       7728.36782802
