# Probe 0 (0 0 0)
#             Probe                   0
#              Time
                  1       16419.3335725
