# Probe 0 (0 0 0)
#             Probe                   0
#              Time
                  1       807.898512483
