# Probe 0 (0 0 0)
#             Probe                   0
#              Time
                  1       4000.29155238
