# Probe 0 (0 0 0)
#             Probe                   0
#              Time
                  1       9690.70905881
