# Probe 0 (0 0 0)
#             Probe                   0
#              Time
                  1       9180.78918803
