# Probe 0 (0 0 0)
#             Probe                   0
#              Time
                  1       23.6253714081
