# Probe 0 (0 0 0)
#             Probe                   0
#              Time
                  1       8714.62157427
