# Probe 0 (0 0 0)
#             Probe                   0
#              Time
                  1       1327.25802514
