# Probe 0 (0 0 0)
#             Probe                   0
#              Time
                  1       8251.53045294
