# Probe 0 (0 0 0)
#             Probe                   0
#              Time
                  1       14768.7734532
