# Probe 0 (0 0 0)
#             Probe                   0
#              Time
                  1        688.00153285
