# Probe 0 (0 0 0)
#             Probe                   0
#              Time
                  1       3.40303983452
