# Probe 0 (0 0 0)
#             Probe                   0
#              Time
                  1       34.7312569675
