# Probe 0 (0 0 0)
#             Probe                   0
#              Time
                  1      0.938154523256
