# Probe 0 (0 0 0)
#             Probe                   0
#              Time
                  1       17811.9875542
