# Probe 0 (0 0 0)
#             Probe                   0
#              Time
                  1       18032.5397474
