# Probe 0 (0 0 0)
#             Probe                   0
#              Time
                  1       36.1200310248
