# Probe 0 (0 0 0)
#             Probe                   0
#              Time
                  1       5.50168794001
