# Probe 0 (0 0 0)
#             Probe                   0
#              Time
                  1       225766.514871
