# Probe 0 (0 0 0)
#             Probe                   0
#              Time
                  1       28.7852817337
