# Probe 0 (0 0 0)
#             Probe                   0
#              Time
                  1       14837.0529661
