# Probe 0 (0 0 0)
#             Probe                   0
#              Time
                  1       9986.56614625
