# Probe 0 (0 0 0)
#             Probe                   0
#              Time
                  1        8132.3368131
