# Probe 0 (0 0 0)
#             Probe                   0
#              Time
                  1       27466.0414531
